 Q-Chem 6.0, Q-Chem, Inc., Pleasanton, CA (2022)
 Q-Chem 6.0.2 for Intel X86 EM64T Linux

User input:
--------------------------------------------------------------
$molecule
0 1
C         -1.82075        1.21221        0.00007
C         -0.42782        1.22011        0.00011
C          0.24287        0.00002       -0.00001
C         -0.42786       -1.22012        0.00003
C         -2.51579        0.00002        0.00000
H         -2.36155        2.15093       -0.00002
H          0.13769        2.14227        0.00006
H          0.13768       -2.14225       -0.00012
H         -3.59985       -0.00001       -0.00023
N          1.70520        0.00000       -0.00004
O          2.29572       -1.10489        0.00011
O          2.29576        1.10486       -0.00013
C         -1.82075       -1.21220       -0.00006
H         -2.36162       -2.15087       -0.00013
$end

$rem
!SCF_GUESS         read
!SKIP_CIS_RPA      TRUE
METHOD             wB97XD
RPA                TRUE
BASIS              6-31G
CIS_N_ROOTS        100
CIS_SINGLETS       TRUE
CIS_TRIPLETS       FALSE
MAKE_CUBE_FILES    TRUE
PLOTS              TRUE
STS_MOM            TRUE
SYM_IGNORE         TRUE
SYMMETRY           FALSE
$end

$plots
grid_points                    100 100 100
total_density                  0-100
transition_density             1-100
$end

--------------------------------------------------------------

             Standard Nuclear Orientation (Angstroms)
    I     Atom           X                Y                Z
 ----------------------------------------------------------------
    1      C      -1.8207500000     1.2122100000     0.0000700000
    2      C      -0.4278200000     1.2201100000     0.0001100000
    3      C       0.2428700000     0.0000200000    -0.0000100000
    4      C      -0.4278600000    -1.2201200000     0.0000300000
    5      C      -2.5157900000     0.0000200000     0.0000000000
    6      H      -2.3615500000     2.1509300000    -0.0000200000
    7      H       0.1376900000     2.1422700000     0.0000600000
    8      H       0.1376800000    -2.1422500000    -0.0001200000
    9      H      -3.5998500000    -0.0000100000    -0.0002300000
   10      N       1.7052000000     0.0000000000    -0.0000400000
   11      O       2.2957200000    -1.1048900000     0.0001100000
   12      O       2.2957600000     1.1048600000    -0.0001300000
   13      C      -1.8207500000    -1.2122000000    -0.0000600000
   14      H      -2.3616200000    -2.1508700000    -0.0001300000
 ----------------------------------------------------------------

   14    -436.4600916295      9.95e-09  Convergence criterion met
 Total energy in the final basis set =     -436.4600916295
 Excited state 100: excitation energy (eV) =   14.7433

             TDDFT Excitation Energies
 ---------------------------------------------------

 Excited state   1: excitation energy (eV) =    3.5438
 Total energy for state  1:                  -436.32985893 au
    Multiplicity: Singlet
    Trans. Mom.: -0.0001 X  -0.0000 Y   0.0000 Z
    Strength   :     0.0000000007
    X: D(   30) --> V(    1) amplitude =  0.9683
    X: D(   30) --> V(    3) amplitude = -0.2482

 Excited state   2: excitation energy (eV) =    4.0376
 Total energy for state  2:                  -436.31171243 au
    Multiplicity: Singlet
    Trans. Mom.: -0.0001 X  -0.0000 Y   0.0309 Z
    Strength   :     0.0000946697
    X: D(   28) --> V(    1) amplitude =  0.9687
    X: D(   28) --> V(    3) amplitude = -0.2381

 Excited state   3: excitation energy (eV) =    4.8013
 Total energy for state  3:                  -436.28364879 au
    Multiplicity: Singlet
    Trans. Mom.: -0.0003 X  -0.3875 Y  -0.0000 Z
    Strength   :     0.0176589400
    X: D(   31) --> V(    2) amplitude =  0.2924
    X: D(   32) --> V(    1) amplitude =  0.9497

 Excited state   4: excitation energy (eV) =    5.1148
 Total energy for state  4:                  -436.27212616 au
    Multiplicity: Singlet
    Trans. Mom.: -1.3881 X   0.0001 Y   0.0001 Z
    Strength   :     0.2414470763
    X: D(   31) --> V(    1) amplitude =  0.9777

 Excited state   5: excitation energy (eV) =    6.1589
 Total energy for state  5:                  -436.23375463 au
    Multiplicity: Singlet
    Trans. Mom.: -0.0000 X  -0.4964 Y   0.0001 Z
    Strength   :     0.0371806699
    X: D(   29) --> V(    1) amplitude =  0.9018
    X: D(   31) --> V(    2) amplitude =  0.3487

 Excited state   6: excitation energy (eV) =    6.5126
 Total energy for state  6:                  -436.22075887 au
    Multiplicity: Singlet
    Trans. Mom.: -0.0000 X   0.7191 Y  -0.0000 Z
    Strength   :     0.0824966611
    X: D(   29) --> V(    1) amplitude = -0.3976
    X: D(   31) --> V(    2) amplitude =  0.6831
    X: D(   32) --> V(    1) amplitude = -0.2565
    X: D(   32) --> V(    3) amplitude =  0.5524

 Excited state   7: excitation energy (eV) =    6.9762
 Total energy for state  7:                  -436.20372208 au
    Multiplicity: Singlet
    Trans. Mom.: -1.0367 X   0.0002 Y  -0.0001 Z
    Strength   :     0.1836856125
    X: D(   31) --> V(    3) amplitude = -0.4319
    X: D(   32) --> V(    2) amplitude =  0.8763

 Excited state   8: excitation energy (eV) =    7.0579
 Total energy for state  8:                  -436.20071824 au
    Multiplicity: Singlet
    Trans. Mom.: -0.0000 X   0.0000 Y   0.0000 Z
    Strength   :     0.0000000002
    X: D(   27) --> V(    1) amplitude =  0.9585

 Excited state   9: excitation energy (eV) =    7.6552
 Total energy for state  9:                  -436.17876737 au
    Multiplicity: Singlet
    Trans. Mom.: -0.0001 X  -0.0000 Y   0.0561 Z
    Strength   :     0.0005902258
    X: D(   26) --> V(    1) amplitude =  0.8517
    X: D(   26) --> V(    3) amplitude =  0.2258
    X: D(   30) --> V(    2) amplitude = -0.3890

 Excited state  10: excitation energy (eV) =    7.7710
 Total energy for state 10:                  -436.17451114 au
    Multiplicity: Singlet
    Trans. Mom.:  0.0000 X   0.0004 Y  -0.0122 Z
    Strength   :     0.0000281376
    X: D(   26) --> V(    1) amplitude =  0.3354
    X: D(   30) --> V(    2) amplitude =  0.9058

 Excited state  11: excitation energy (eV) =    7.9342
 Total energy for state 11:                  -436.16851597 au
    Multiplicity: Singlet
    Trans. Mom.:  0.0009 X   0.0014 Y  -0.0000 Z
    Strength   :     0.0000005571
    X: D(   28) --> V(    2) amplitude =  0.6889
    X: D(   30) --> V(    3) amplitude = -0.6712

 Excited state  12: excitation energy (eV) =    7.9862
 Total energy for state 12:                  -436.16660580 au
    Multiplicity: Singlet
    Trans. Mom.: -0.0055 X  -1.6404 Y  -0.0001 Z
    Strength   :     0.5265244687
    X: D(   31) --> V(    2) amplitude = -0.5678
    X: D(   32) --> V(    3) amplitude =  0.8042

 Excited state  13: excitation energy (eV) =    7.9903
 Total energy for state 13:                  -436.16645438 au
    Multiplicity: Singlet
    Trans. Mom.: -1.2729 X   0.0068 Y   0.0000 Z
    Strength   :     0.3171837847
    X: D(   29) --> V(    2) amplitude = -0.2899
    X: D(   31) --> V(    3) amplitude =  0.8110
    X: D(   32) --> V(    2) amplitude =  0.4479

 Excited state  14: excitation energy (eV) =    8.0209
 Total energy for state 14:                  -436.16533045 au
    Multiplicity: Singlet
    Trans. Mom.:  0.0026 X  -0.0014 Y  -0.0000 Z
    Strength   :     0.0000016710
    X: D(   28) --> V(    2) amplitude =  0.6876
    X: D(   30) --> V(    3) amplitude =  0.6652

 Excited state  15: excitation energy (eV) =    8.1046
 Total energy for state 15:                  -436.16225288 au
    Multiplicity: Singlet
    Trans. Mom.: -0.3477 X   0.0003 Y   0.0000 Z
    Strength   :     0.0240069524
    X: D(   29) --> V(    2) amplitude =  0.9380
    X: D(   31) --> V(    3) amplitude =  0.3120

 Excited state  16: excitation energy (eV) =    8.2632
 Total energy for state 16:                  -436.15642631 au
    Multiplicity: Singlet
    Trans. Mom.:  0.0004 X   0.0003 Y  -0.0342 Z
    Strength   :     0.0002368418
    X: D(   26) --> V(    1) amplitude =  0.2612
    X: D(   28) --> V(    1) amplitude =  0.2164
    X: D(   28) --> V(    3) amplitude =  0.9041

 Excited state  17: excitation energy (eV) =    8.3413
 Total energy for state 17:                  -436.15355440 au
    Multiplicity: Singlet
    Trans. Mom.: -0.0351 X   0.0003 Y   0.0001 Z
    Strength   :     0.0002514620
    X: D(   25) --> V(    1) amplitude =  0.9452

 Excited state  18: excitation energy (eV) =    8.4286
 Total energy for state 18:                  -436.15034689 au
    Multiplicity: Singlet
    Trans. Mom.: -0.0003 X   0.0001 Y  -0.1651 Z
    Strength   :     0.0056266653
    X: D(   27) --> V(    2) amplitude =  0.9881

 Excited state  19: excitation energy (eV) =    8.5461
 Total energy for state 19:                  -436.14602689 au
    Multiplicity: Singlet
    Trans. Mom.: -0.0000 X   0.3301 Y  -0.0001 Z
    Strength   :     0.0228104086
    X: D(   29) --> V(    3) amplitude =  0.9753

 Excited state  20: excitation energy (eV) =    8.8957
 Total energy for state 20:                  -436.13318139 au
    Multiplicity: Singlet
    Trans. Mom.: -0.0000 X  -0.0002 Y   0.0000 Z
    Strength   :     0.0000000060
    X: D(   24) --> V(    1) amplitude =  0.2711
    X: D(   26) --> V(    2) amplitude =  0.9005
    X: D(   27) --> V(    3) amplitude =  0.2285

 Excited state  21: excitation energy (eV) =    9.0691
 Total energy for state 21:                  -436.12680746 au
    Multiplicity: Singlet
    Trans. Mom.:  0.0000 X  -0.0001 Y  -0.0000 Z
    Strength   :     0.0000000019
    X: D(   22) --> V(    1) amplitude = -0.6033
    X: D(   24) --> V(    1) amplitude =  0.3266
    X: D(   26) --> V(    2) amplitude = -0.2768
    X: D(   27) --> V(    3) amplitude =  0.6146

 Excited state  22: excitation energy (eV) =    9.4048
 Total energy for state 22:                  -436.11447043 au
    Multiplicity: Singlet
    Trans. Mom.:  0.0001 X  -0.0000 Y  -0.0000 Z
    Strength   :     0.0000000013
    X: D(   21) --> V(    1) amplitude = -0.2309
    X: D(   22) --> V(    1) amplitude = -0.3575
    X: D(   24) --> V(    1) amplitude = -0.3559
    X: D(   32) --> V(    4) amplitude =  0.7970

 Excited state  23: excitation energy (eV) =    9.4375
 Total energy for state 23:                  -436.11326826 au
    Multiplicity: Singlet
    Trans. Mom.:  0.0000 X   0.0001 Y  -0.0000 Z
    Strength   :     0.0000000015
    X: D(   21) --> V(    1) amplitude =  0.2371
    X: D(   22) --> V(    1) amplitude =  0.4213
    X: D(   24) --> V(    1) amplitude =  0.5760
    X: D(   32) --> V(    4) amplitude =  0.5660

 Excited state  24: excitation energy (eV) =    9.5415
 Total energy for state 24:                  -436.10944691 au
    Multiplicity: Singlet
    Trans. Mom.:  0.0000 X  -0.0000 Y  -0.1062 Z
    Strength   :     0.0026373413
    X: D(   31) --> V(    4) amplitude =  0.9555

 Excited state  25: excitation energy (eV) =    9.8356
 Total energy for state 25:                  -436.09864169 au
    Multiplicity: Singlet
    Trans. Mom.:  0.0002 X  -0.0001 Y   0.1500 Z
    Strength   :     0.0054224540
    X: D(   20) --> V(    1) amplitude = -0.3823
    X: D(   23) --> V(    1) amplitude = -0.4024
    X: D(   26) --> V(    3) amplitude =  0.7465

 Excited state  26: excitation energy (eV) =    9.8523
 Total energy for state 26:                  -436.09802483 au
    Multiplicity: Singlet
    Trans. Mom.:  0.0001 X  -0.0001 Y  -0.0002 Z
    Strength   :     0.0000000119
    X: D(   21) --> V(    1) amplitude =  0.3127
    X: D(   22) --> V(    1) amplitude =  0.2615
    X: D(   24) --> V(    1) amplitude = -0.5294
    X: D(   27) --> V(    1) amplitude = -0.2380
    X: D(   27) --> V(    3) amplitude =  0.6612

 Excited state  27: excitation energy (eV) =    9.9213
 Total energy for state 27:                  -436.09548924 au
    Multiplicity: Singlet
    Trans. Mom.: -0.0001 X  -0.0415 Y  -0.0000 Z
    Strength   :     0.0004194363
    X: D(   25) --> V(    2) amplitude =  0.9789

 Excited state  28: excitation energy (eV) =   10.0963
 Total energy for state 28:                  -436.08905872 au
    Multiplicity: Singlet
    Trans. Mom.: -0.0000 X  -0.0000 Y  -0.0216 Z
    Strength   :     0.0001154814
    X: D(   23) --> V(    1) amplitude =  0.8396
    X: D(   24) --> V(    2) amplitude = -0.2222
    X: D(   26) --> V(    3) amplitude =  0.3799

 Excited state  29: excitation energy (eV) =   10.2189
 Total energy for state 29:                  -436.08455257 au
    Multiplicity: Singlet
    Trans. Mom.:  0.0000 X   0.0778 Y  -0.0000 Z
    Strength   :     0.0015142953
    X: D(   30) --> V(    4) amplitude =  0.7971
    X: D(   30) --> V(    5) amplitude =  0.5133

 Excited state  30: excitation energy (eV) =   10.3550
 Total energy for state 30:                  -436.07955379 au
    Multiplicity: Singlet
    Trans. Mom.: -0.0000 X  -0.0000 Y   0.0000 Z
    Strength   :     0.0000000007
    X: D(   21) --> V(    1) amplitude =  0.7291
    X: D(   22) --> V(    1) amplitude = -0.4130
    X: D(   22) --> V(    3) amplitude = -0.3144
    X: D(   29) --> V(    4) amplitude = -0.2724

 Excited state  31: excitation energy (eV) =   10.4653
 Total energy for state 31:                  -436.07549909 au
    Multiplicity: Singlet
    Trans. Mom.: -0.0000 X   0.0001 Y   0.0000 Z
    Strength   :     0.0000000009
    X: D(   21) --> V(    1) amplitude =  0.3087
    X: D(   29) --> V(    4) amplitude =  0.7223
    X: D(   29) --> V(    5) amplitude =  0.4750

 Excited state  32: excitation energy (eV) =   10.5983
 Total energy for state 32:                  -436.07061151 au
    Multiplicity: Singlet
    Trans. Mom.: -0.0001 X   0.0000 Y   0.0264 Z
    Strength   :     0.0001811061
    X: D(   24) --> V(    2) amplitude =  0.9354

 Excited state  33: excitation energy (eV) =   10.7125
 Total energy for state 33:                  -436.06641428 au
    Multiplicity: Singlet
    Trans. Mom.:  0.0002 X   0.0000 Y  -0.0617 Z
    Strength   :     0.0009989174
    X: D(   25) --> V(    4) amplitude =  0.3260
    X: D(   31) --> V(    5) amplitude =  0.7319
    X: D(   32) --> V(    6) amplitude = -0.5731

 Excited state  34: excitation energy (eV) =   10.7354
 Total energy for state 34:                  -436.06557343 au
    Multiplicity: Singlet
    Trans. Mom.: -0.3239 X   0.0001 Y  -0.0000 Z
    Strength   :     0.0276002956
    X: D(   25) --> V(    3) amplitude =  0.8509
    X: D(   28) --> V(    4) amplitude = -0.3865
    X: D(   28) --> V(    5) amplitude = -0.2611

 Excited state  35: excitation energy (eV) =   10.9186
 Total energy for state 35:                  -436.05884192 au
    Multiplicity: Singlet
    Trans. Mom.:  0.5547 X  -0.0000 Y   0.0000 Z
    Strength   :     0.0823126448
    X: D(   25) --> V(    3) amplitude =  0.4832
    X: D(   28) --> V(    4) amplitude =  0.6822
    X: D(   28) --> V(    5) amplitude =  0.3950

 Excited state  36: excitation energy (eV) =   10.9676
 Total energy for state 36:                  -436.05703823 au
    Multiplicity: Singlet
    Trans. Mom.: -0.0002 X  -0.0000 Y  -0.0001 Z
    Strength   :     0.0000000167
    X: D(   31) --> V(    6) amplitude = -0.2475
    X: D(   32) --> V(    5) amplitude =  0.9268

 Excited state  37: excitation energy (eV) =   11.0224
 Total energy for state 37:                  -436.05502635 au
    Multiplicity: Singlet
    Trans. Mom.:  0.0000 X  -0.0000 Y  -0.0433 Z
    Strength   :     0.0005053346
    X: D(   31) --> V(    5) amplitude =  0.5991
    X: D(   32) --> V(    6) amplitude =  0.7401

 Excited state  38: excitation energy (eV) =   11.0834
 Total energy for state 38:                  -436.05278456 au
    Multiplicity: Singlet
    Trans. Mom.:  0.0002 X  -0.0000 Y  -0.1293 Z
    Strength   :     0.0045379629
    X: D(   18) --> V(    1) amplitude =  0.2921
    X: D(   20) --> V(    1) amplitude =  0.6060
    X: D(   21) --> V(    2) amplitude =  0.2207
    X: D(   22) --> V(    2) amplitude = -0.5568
    X: D(   26) --> V(    3) amplitude =  0.2511

 Excited state  39: excitation energy (eV) =   11.2111
 Total energy for state 39:                  -436.04809156 au
    Multiplicity: Singlet
    Trans. Mom.: -0.0000 X   0.0000 Y   0.0002 Z
    Strength   :     0.0000000130
    X: D(   23) --> V(    2) amplitude =  0.8727
    X: D(   24) --> V(    3) amplitude = -0.2450
    X: D(   27) --> V(    7) amplitude =  0.2629

 Excited state  40: excitation energy (eV) =   11.2297
 Total energy for state 40:                  -436.04740946 au
    Multiplicity: Singlet
    Trans. Mom.:  0.0000 X  -0.0000 Y  -0.1438 Z
    Strength   :     0.0056860813
    X: D(   20) --> V(    1) amplitude =  0.4805
    X: D(   21) --> V(    2) amplitude = -0.2775
    X: D(   22) --> V(    2) amplitude =  0.6848
    X: D(   26) --> V(    3) amplitude =  0.2964

 Excited state  41: excitation energy (eV) =   11.2973
 Total energy for state 41:                  -436.04492334 au
    Multiplicity: Singlet
    Trans. Mom.:  0.0001 X  -0.0256 Y   0.0001 Z
    Strength   :     0.0001814766
    X: D(   32) --> V(    7) amplitude =  0.9739

 Excited state  42: excitation energy (eV) =   11.3565
 Total energy for state 42:                  -436.04274609 au
    Multiplicity: Singlet
    Trans. Mom.: -0.0001 X  -0.0000 Y   0.0001 Z
    Strength   :     0.0000000025
    X: D(   31) --> V(    6) amplitude =  0.9317
    X: D(   32) --> V(    5) amplitude =  0.2338

 Excited state  43: excitation energy (eV) =   11.3653
 Total energy for state 43:                  -436.04242384 au
    Multiplicity: Singlet
    Trans. Mom.: -0.0416 X   0.0001 Y  -0.0000 Z
    Strength   :     0.0004815750
    X: D(   19) --> V(    1) amplitude =  0.4333
    X: D(   31) --> V(    7) amplitude =  0.8808

 Excited state  44: excitation energy (eV) =   11.8116
 Total energy for state 44:                  -436.02602435 au
    Multiplicity: Singlet
    Trans. Mom.: -0.5041 X  -0.0000 Y  -0.0000 Z
    Strength   :     0.0735439650
    X: D(   19) --> V(    1) amplitude =  0.8181
    X: D(   28) --> V(    4) amplitude = -0.2927
    X: D(   31) --> V(    7) amplitude = -0.3852

 Excited state  45: excitation energy (eV) =   11.9102
 Total energy for state 45:                  -436.02240082 au
    Multiplicity: Singlet
    Trans. Mom.: -0.0001 X  -0.0000 Y   0.0003 Z
    Strength   :     0.0000000366
    X: D(   23) --> V(    2) amplitude =  0.3078
    X: D(   24) --> V(    3) amplitude =  0.8998

 Excited state  46: excitation energy (eV) =   11.9340
 Total energy for state 46:                  -436.02152572 au
    Multiplicity: Singlet
    Trans. Mom.: -0.0001 X  -0.0000 Y  -0.1757 Z
    Strength   :     0.0090294618
    X: D(   18) --> V(    1) amplitude =  0.6985
    X: D(   20) --> V(    1) amplitude = -0.3048
    X: D(   20) --> V(    3) amplitude = -0.3387
    X: D(   23) --> V(    3) amplitude = -0.5059

 Excited state  47: excitation energy (eV) =   12.1041
 Total energy for state 47:                  -436.01527551 au
    Multiplicity: Singlet
    Trans. Mom.: -0.0000 X  -0.0001 Y  -0.0000 Z
    Strength   :     0.0000000014
    X: D(   22) --> V(    3) amplitude =  0.2195
    X: D(   32) --> V(    8) amplitude =  0.6938

 Excited state 100: excitation energy (eV) =   14.7213

                    Orbital Energies (a.u.)
 --------------------------------------------------------------

 Alpha MOs
 -- Occupied --
-19.3115 -19.3115 -14.6918 -10.3752 -10.3373 -10.3373 -10.3351 -10.3319
-10.3319  -1.3462  -1.1688  -1.0083  -0.9241  -0.8848  -0.8126  -0.7386
 -0.6995  -0.6611  -0.6331  -0.6084  -0.6042  -0.5650  -0.5622  -0.5447
 -0.4886  -0.4792  -0.4604  -0.3977  -0.3906  -0.3823  -0.3650  -0.3607

          Ground-State Mulliken Net Atomic Charges

     Atom                 Charge (a.u.)
  ----------------------------------------
      1 C                    -0.186816
      2 C                    -0.135897
      3 C                     0.284291
      4 C                    -0.135866
      5 C                    -0.134713
      6 H                     0.188688
      7 H                     0.228415
      8 H                     0.228413
      9 H                     0.186429
     10 N                     0.069024
     11 O                    -0.296918
     12 O                    -0.296918
     13 C                    -0.186820
     14 H                     0.188689
  ----------------------------------------
  Sum of atomic charges =     0.000000

                    Cartesian Multipole Moments
 -----------------------------------------------------------------
    Charge (ESU x 10^10)
                -0.0000
    Dipole Moment (Debye)
         X      -5.1408      Y       0.0001      Z      -0.0004
       Tot       5.1408
    Quadrupole Moments (Debye-Ang)
        XX     -55.1587     XY       0.0002     YY     -47.3972
        XZ       0.0009     YZ       0.0009     ZZ     -52.5020

 Total job time:  276.92s(wall), 2688.57s(cpu)
        *  Thank you very much for using Q-Chem.  Have a nice day.  *
